24
0-1-3_optfreq.log	Energy: -338490.4494002
C          0.00000       -0.68162        2.09919
C          0.00000       -1.42610        0.86923
C          0.00000        0.68162        2.09919
C          0.00000       -0.73006       -0.38141
C          0.00000       -2.84366        0.88143
C          0.00000        0.73006       -0.38141
C          0.00000       -1.50189       -1.57087
C          0.00000        1.42610        0.86923
C          0.00000        1.50189       -1.57087
C          0.00000        2.84366        0.88143
C          0.00000       -3.56876       -0.29788
C          0.00000       -2.88823       -1.53355
C          0.00000        2.88823       -1.53355
C          0.00000        3.56876       -0.29788
H          0.00000       -1.23461        3.03409
H          0.00000        1.23461        3.03409
H          0.00000       -3.35480        1.84013
H          0.00000       -1.00796       -2.53536
H          0.00000        1.00796       -2.53536
H          0.00000        3.35480        1.84013
H          0.00000       -4.65372       -0.27489
H          0.00000       -3.45232       -2.46085
H          0.00000        3.45232       -2.46085
H          0.00000        4.65372       -0.27489
